/*--------------------------------*- C++ -*----------------------------------*\
  =========                 |
  \\      /  F ield         | OpenFOAM: The Open Source CFD Toolbox
   \\    /   O peration     | Website:  https://openfoam.org
    \\  /    A nd           | Version:  8
     \\/     M anipulation  |
\*---------------------------------------------------------------------------*/
FoamFile
{
    version     2.0;
    format      ascii;
    class       volScalarField;
    location    "0";
    object      Ma;
}
// * * * * * * * * * * * * * * * * * * * * * * * * * * * * * * * * * * * * * //

dimensions      [0 0 0 0 0 0 0];

internalField   uniform 0.17548981;

boundaryField
{
    airInlet
    {
        type            calculated;
        value           uniform 0.17548981;
    }
    airOutlet
    {
        type            calculated;
        value           uniform 0.17548981;
    }
    jetOutlet
    {
        type            calculated;
        value           uniform 1.4233839;
    }
    walls
    {
        type            calculated;
        value           uniform 0;
    }
    slipWalls
    {
        type            calculated;
        value           uniform 0;
    }
    axis
    {
        type            empty;
    }
    sideA
    {
        type            wedge;
    }
    sideB
    {
        type            wedge;
    }
}


// ************************************************************************* //
